version 2
run General-0-20150528-08:08:06-2571
attr configname General
attr datetime 20150528-08:08:06
attr experiment General
attr inifile omnetpp.ini
attr iterationvars ""
attr iterationvars2 $repetition=0
attr measurement ""
attr network intersection
attr processid 2571
attr repetition 0
attr replication #0
attr resultdir results
attr runnumber 0
attr seedset 0

vector 18  intersection.tl1.ppp[0].queue  queueLength:vector  ETV
attr interpolationmode  sample-hold
attr title  "queue length, vector"
vector 19  intersection.tl1.ppp[0].ppp  txState:vector  ETV
attr interpolationmode  sample-hold
attr title  "tx state, vector"
vector 44  intersection.tl2.ppp[0].queue  queueLength:vector  ETV
attr interpolationmode  sample-hold
attr title  "queue length, vector"
vector 45  intersection.tl2.ppp[0].ppp  txState:vector  ETV
attr interpolationmode  sample-hold
attr title  "tx state, vector"
vector 70  intersection.tl3.ppp[0].queue  queueLength:vector  ETV
attr interpolationmode  sample-hold
attr title  "queue length, vector"
vector 71  intersection.tl3.ppp[0].ppp  txState:vector  ETV
attr interpolationmode  sample-hold
attr title  "tx state, vector"
vector 86  intersection.r1.ppp[0].queue  queueLength:vector  ETV
attr interpolationmode  sample-hold
attr title  "queue length, vector"
vector 87  intersection.r1.ppp[0].ppp  txState:vector  ETV
attr interpolationmode  sample-hold
attr title  "tx state, vector"
vector 97  intersection.r1.ppp[1].queue  queueLength:vector  ETV
attr interpolationmode  sample-hold
attr title  "queue length, vector"
vector 98  intersection.r1.ppp[1].ppp  txState:vector  ETV
attr interpolationmode  sample-hold
attr title  "tx state, vector"
vector 108  intersection.r1.ppp[2].queue  queueLength:vector  ETV
attr interpolationmode  sample-hold
attr title  "queue length, vector"
vector 109  intersection.r1.ppp[2].ppp  txState:vector  ETV
attr interpolationmode  sample-hold
attr title  "tx state, vector"
vector 119  intersection.r1.ppp[3].queue  queueLength:vector  ETV
attr interpolationmode  sample-hold
attr title  "queue length, vector"
vector 120  intersection.r1.ppp[3].ppp  txState:vector  ETV
attr interpolationmode  sample-hold
attr title  "tx state, vector"
vector 155  intersection.cn.ppp[0].queue  queueLength:vector  ETV
attr interpolationmode  sample-hold
attr title  "queue length, vector"
vector 156  intersection.cn.ppp[0].ppp  txState:vector  ETV
attr interpolationmode  sample-hold
attr title  "tx state, vector"
vector 3  intersection.tl1.senderApp  sentPk:vector(packetBytes)  ETV
attr interpolationmode  none
attr source  sentPk
attr title  "packets sent, vector(packetBytes)"
vector 29  intersection.tl2.senderApp  sentPk:vector(packetBytes)  ETV
attr interpolationmode  none
attr source  sentPk
attr title  "packets sent, vector(packetBytes)"
vector 55  intersection.tl3.senderApp  sentPk:vector(packetBytes)  ETV
attr interpolationmode  none
attr source  sentPk
attr title  "packets sent, vector(packetBytes)"
vector 134  intersection.cn.sender1  sentPk:vector(packetBytes)  ETV
attr interpolationmode  none
attr source  sentPk
attr title  "packets sent, vector(packetBytes)"
vector 137  intersection.cn.sender2  sentPk:vector(packetBytes)  ETV
attr interpolationmode  none
attr source  sentPk
attr title  "packets sent, vector(packetBytes)"
vector 140  intersection.cn.sender3  sentPk:vector(packetBytes)  ETV
attr interpolationmode  none
attr source  sentPk
attr title  "packets sent, vector(packetBytes)"
vector 5  intersection.tl1.udp  sentPk:vector(packetBytes)  ETV
attr interpolationmode  none
attr source  sentPk
attr title  "packets sent, vector(packetBytes)"
vector 31  intersection.tl2.udp  sentPk:vector(packetBytes)  ETV
attr interpolationmode  none
attr source  sentPk
attr title  "packets sent, vector(packetBytes)"
vector 57  intersection.tl3.udp  sentPk:vector(packetBytes)  ETV
attr interpolationmode  none
attr source  sentPk
attr title  "packets sent, vector(packetBytes)"
vector 142  intersection.cn.udp  sentPk:vector(packetBytes)  ETV
attr interpolationmode  none
attr source  sentPk
attr title  "packets sent, vector(packetBytes)"
vector 15  intersection.tl1.ppp[0].queue  rcvdPk:vector(packetBytes)  ETV
attr interpolationmode  none
attr title  "received packets, vector(packetBytes)"
vector 17  intersection.tl1.ppp[0].queue  queueingTime:vector  ETV
attr interpolationmode  none
attr title  "queueing time, vector"
vector 41  intersection.tl2.ppp[0].queue  rcvdPk:vector(packetBytes)  ETV
attr interpolationmode  none
attr title  "received packets, vector(packetBytes)"
vector 43  intersection.tl2.ppp[0].queue  queueingTime:vector  ETV
attr interpolationmode  none
attr title  "queueing time, vector"
vector 67  intersection.tl3.ppp[0].queue  rcvdPk:vector(packetBytes)  ETV
attr interpolationmode  none
attr title  "received packets, vector(packetBytes)"
vector 69  intersection.tl3.ppp[0].queue  queueingTime:vector  ETV
attr interpolationmode  none
attr title  "queueing time, vector"
vector 152  intersection.cn.ppp[0].queue  rcvdPk:vector(packetBytes)  ETV
attr interpolationmode  none
attr title  "received packets, vector(packetBytes)"
vector 154  intersection.cn.ppp[0].queue  queueingTime:vector  ETV
attr interpolationmode  none
attr title  "queueing time, vector"
vector 24  intersection.tl1.ppp[0].ppp  rcvdPkFromHL:vector(packetBytes)  ETV
attr interpolationmode  none
attr source  packetReceivedFromUpper
attr title  "packets received from higher layer, vector(packetBytes)"
vector 20  intersection.tl1.ppp[0].ppp  txPk:vector(packetBytes)  ETV
attr interpolationmode  none
attr source  packetSentToLower
attr title  "packets transmitted, vector(packetBytes)"
vector 50  intersection.tl2.ppp[0].ppp  rcvdPkFromHL:vector(packetBytes)  ETV
attr interpolationmode  none
attr source  packetReceivedFromUpper
attr title  "packets received from higher layer, vector(packetBytes)"
vector 46  intersection.tl2.ppp[0].ppp  txPk:vector(packetBytes)  ETV
attr interpolationmode  none
attr source  packetSentToLower
attr title  "packets transmitted, vector(packetBytes)"
vector 76  intersection.tl3.ppp[0].ppp  rcvdPkFromHL:vector(packetBytes)  ETV
attr interpolationmode  none
attr source  packetReceivedFromUpper
attr title  "packets received from higher layer, vector(packetBytes)"
vector 72  intersection.tl3.ppp[0].ppp  txPk:vector(packetBytes)  ETV
attr interpolationmode  none
attr source  packetSentToLower
attr title  "packets transmitted, vector(packetBytes)"
vector 161  intersection.cn.ppp[0].ppp  rcvdPkFromHL:vector(packetBytes)  ETV
attr interpolationmode  none
attr source  packetReceivedFromUpper
attr title  "packets received from higher layer, vector(packetBytes)"
vector 157  intersection.cn.ppp[0].ppp  txPk:vector(packetBytes)  ETV
attr interpolationmode  none
attr source  packetSentToLower
attr title  "packets transmitted, vector(packetBytes)"
vector 89  intersection.r1.ppp[0].ppp  rxPkOk:vector(packetBytes)  ETV
attr interpolationmode  none
attr source  rxPkOk
attr title  "packets received OK, vector(packetBytes)"
vector 93  intersection.r1.ppp[0].ppp  passedUpPk:vector(packetBytes)  ETV
attr interpolationmode  none
attr source  packetSentToUpper
attr title  "packets passed to higher layer, vector(packetBytes)"
vector 116  intersection.r1.ppp[3].queue  rcvdPk:vector(packetBytes)  ETV
attr interpolationmode  none
attr title  "received packets, vector(packetBytes)"
vector 118  intersection.r1.ppp[3].queue  queueingTime:vector  ETV
attr interpolationmode  none
attr title  "queueing time, vector"
vector 125  intersection.r1.ppp[3].ppp  rcvdPkFromHL:vector(packetBytes)  ETV
attr interpolationmode  none
attr source  packetReceivedFromUpper
attr title  "packets received from higher layer, vector(packetBytes)"
vector 121  intersection.r1.ppp[3].ppp  txPk:vector(packetBytes)  ETV
attr interpolationmode  none
attr source  packetSentToLower
attr title  "packets transmitted, vector(packetBytes)"
vector 111  intersection.r1.ppp[2].ppp  rxPkOk:vector(packetBytes)  ETV
attr interpolationmode  none
attr source  rxPkOk
attr title  "packets received OK, vector(packetBytes)"
vector 115  intersection.r1.ppp[2].ppp  passedUpPk:vector(packetBytes)  ETV
attr interpolationmode  none
attr source  packetSentToUpper
attr title  "packets passed to higher layer, vector(packetBytes)"
vector 122  intersection.r1.ppp[3].ppp  rxPkOk:vector(packetBytes)  ETV
attr interpolationmode  none
attr source  rxPkOk
attr title  "packets received OK, vector(packetBytes)"
vector 126  intersection.r1.ppp[3].ppp  passedUpPk:vector(packetBytes)  ETV
attr interpolationmode  none
attr source  packetSentToUpper
attr title  "packets passed to higher layer, vector(packetBytes)"
vector 83  intersection.r1.ppp[0].queue  rcvdPk:vector(packetBytes)  ETV
attr interpolationmode  none
attr title  "received packets, vector(packetBytes)"
vector 85  intersection.r1.ppp[0].queue  queueingTime:vector  ETV
attr interpolationmode  none
attr title  "queueing time, vector"
vector 92  intersection.r1.ppp[0].ppp  rcvdPkFromHL:vector(packetBytes)  ETV
attr interpolationmode  none
attr source  packetReceivedFromUpper
attr title  "packets received from higher layer, vector(packetBytes)"
vector 88  intersection.r1.ppp[0].ppp  txPk:vector(packetBytes)  ETV
attr interpolationmode  none
attr source  packetSentToLower
attr title  "packets transmitted, vector(packetBytes)"
vector 94  intersection.r1.ppp[1].queue  rcvdPk:vector(packetBytes)  ETV
attr interpolationmode  none
attr title  "received packets, vector(packetBytes)"
vector 96  intersection.r1.ppp[1].queue  queueingTime:vector  ETV
attr interpolationmode  none
attr title  "queueing time, vector"
vector 103  intersection.r1.ppp[1].ppp  rcvdPkFromHL:vector(packetBytes)  ETV
attr interpolationmode  none
attr source  packetReceivedFromUpper
attr title  "packets received from higher layer, vector(packetBytes)"
vector 99  intersection.r1.ppp[1].ppp  txPk:vector(packetBytes)  ETV
attr interpolationmode  none
attr source  packetSentToLower
attr title  "packets transmitted, vector(packetBytes)"
vector 105  intersection.r1.ppp[2].queue  rcvdPk:vector(packetBytes)  ETV
attr interpolationmode  none
attr title  "received packets, vector(packetBytes)"
vector 107  intersection.r1.ppp[2].queue  queueingTime:vector  ETV
attr interpolationmode  none
attr title  "queueing time, vector"
vector 114  intersection.r1.ppp[2].ppp  rcvdPkFromHL:vector(packetBytes)  ETV
attr interpolationmode  none
attr source  packetReceivedFromUpper
attr title  "packets received from higher layer, vector(packetBytes)"
vector 110  intersection.r1.ppp[2].ppp  txPk:vector(packetBytes)  ETV
attr interpolationmode  none
attr source  packetSentToLower
attr title  "packets transmitted, vector(packetBytes)"
vector 100  intersection.r1.ppp[1].ppp  rxPkOk:vector(packetBytes)  ETV
attr interpolationmode  none
attr source  rxPkOk
attr title  "packets received OK, vector(packetBytes)"
vector 104  intersection.r1.ppp[1].ppp  passedUpPk:vector(packetBytes)  ETV
attr interpolationmode  none
attr source  packetSentToUpper
attr title  "packets passed to higher layer, vector(packetBytes)"
vector 73  intersection.tl3.ppp[0].ppp  rxPkOk:vector(packetBytes)  ETV
attr interpolationmode  none
attr source  rxPkOk
attr title  "packets received OK, vector(packetBytes)"
vector 77  intersection.tl3.ppp[0].ppp  passedUpPk:vector(packetBytes)  ETV
attr interpolationmode  none
attr source  packetSentToUpper
attr title  "packets passed to higher layer, vector(packetBytes)"
vector 58  intersection.tl3.udp  rcvdPk:vector(packetBytes)  ETV
attr interpolationmode  none
attr source  rcvdPk
attr title  "packets received, vector(packetBytes)"
vector 59  intersection.tl3.udp  passedUpPk:vector(count)  ETV
attr interpolationmode  none
attr title  "packets passed up, vector(count)"
vector 52  intersection.tl3.sinkApp  rcvdPk:vector(packetBytes)  ETV
attr interpolationmode  none
attr source  rcvdPk
attr title  "packets received, vector(packetBytes)"
vector 53  intersection.tl3.sinkApp  endToEndDelay:vector  ETV
attr interpolationmode  none
attr source  messageAge(rcvdPk)
attr title  "end-to-end delay, vector"
attr unit  s
vector 21  intersection.tl1.ppp[0].ppp  rxPkOk:vector(packetBytes)  ETV
attr interpolationmode  none
attr source  rxPkOk
attr title  "packets received OK, vector(packetBytes)"
vector 25  intersection.tl1.ppp[0].ppp  passedUpPk:vector(packetBytes)  ETV
attr interpolationmode  none
attr source  packetSentToUpper
attr title  "packets passed to higher layer, vector(packetBytes)"
vector 6  intersection.tl1.udp  rcvdPk:vector(packetBytes)  ETV
attr interpolationmode  none
attr source  rcvdPk
attr title  "packets received, vector(packetBytes)"
vector 7  intersection.tl1.udp  passedUpPk:vector(count)  ETV
attr interpolationmode  none
attr title  "packets passed up, vector(count)"
vector 0  intersection.tl1.sinkApp  rcvdPk:vector(packetBytes)  ETV
attr interpolationmode  none
attr source  rcvdPk
attr title  "packets received, vector(packetBytes)"
vector 1  intersection.tl1.sinkApp  endToEndDelay:vector  ETV
attr interpolationmode  none
attr source  messageAge(rcvdPk)
attr title  "end-to-end delay, vector"
attr unit  s
vector 158  intersection.cn.ppp[0].ppp  rxPkOk:vector(packetBytes)  ETV
attr interpolationmode  none
attr source  rxPkOk
attr title  "packets received OK, vector(packetBytes)"
vector 162  intersection.cn.ppp[0].ppp  passedUpPk:vector(packetBytes)  ETV
attr interpolationmode  none
attr source  packetSentToUpper
attr title  "packets passed to higher layer, vector(packetBytes)"
vector 143  intersection.cn.udp  rcvdPk:vector(packetBytes)  ETV
attr interpolationmode  none
attr source  rcvdPk
attr title  "packets received, vector(packetBytes)"
vector 144  intersection.cn.udp  passedUpPk:vector(count)  ETV
attr interpolationmode  none
attr title  "packets passed up, vector(count)"
vector 127  intersection.cn.controlNodeSink1  rcvdPk:vector(packetBytes)  ETV
attr interpolationmode  none
attr source  rcvdPk
attr title  "packets received, vector(packetBytes)"
vector 128  intersection.cn.controlNodeSink1  endToEndDelay:vector  ETV
attr interpolationmode  none
attr source  messageAge(rcvdPk)
attr title  "end-to-end delay, vector"
attr unit  s
vector 47  intersection.tl2.ppp[0].ppp  rxPkOk:vector(packetBytes)  ETV
attr interpolationmode  none
attr source  rxPkOk
attr title  "packets received OK, vector(packetBytes)"
vector 51  intersection.tl2.ppp[0].ppp  passedUpPk:vector(packetBytes)  ETV
attr interpolationmode  none
attr source  packetSentToUpper
attr title  "packets passed to higher layer, vector(packetBytes)"
vector 32  intersection.tl2.udp  rcvdPk:vector(packetBytes)  ETV
attr interpolationmode  none
attr source  rcvdPk
attr title  "packets received, vector(packetBytes)"
vector 33  intersection.tl2.udp  passedUpPk:vector(count)  ETV
attr interpolationmode  none
attr title  "packets passed up, vector(count)"
vector 26  intersection.tl2.sinkApp  rcvdPk:vector(packetBytes)  ETV
attr interpolationmode  none
attr source  rcvdPk
attr title  "packets received, vector(packetBytes)"
vector 27  intersection.tl2.sinkApp  endToEndDelay:vector  ETV
attr interpolationmode  none
attr source  messageAge(rcvdPk)
attr title  "end-to-end delay, vector"
attr unit  s
vector 131  intersection.cn.controlNodeSink3  rcvdPk:vector(packetBytes)  ETV
attr interpolationmode  none
attr source  rcvdPk
attr title  "packets received, vector(packetBytes)"
vector 132  intersection.cn.controlNodeSink3  endToEndDelay:vector  ETV
attr interpolationmode  none
attr source  messageAge(rcvdPk)
attr title  "end-to-end delay, vector"
attr unit  s
vector 129  intersection.cn.controlNodeSink2  rcvdPk:vector(packetBytes)  ETV
attr interpolationmode  none
attr source  rcvdPk
attr title  "packets received, vector(packetBytes)"
vector 130  intersection.cn.controlNodeSink2  endToEndDelay:vector  ETV
attr interpolationmode  none
attr source  messageAge(rcvdPk)
attr title  "end-to-end delay, vector"
attr unit  s
0	167	0.000384454618	0
0	1121	2.500384454618	0
0	2105	5.000384454618	0
0	3059	7.500384454618	0
0	4043	10.000384454618	0
0	4997	12.500384454618	0
0	5981	15.000384454618	0
0	6935	17.500384454618	0
0	7919	20.000384454618	0
0	8873	22.500384454618	0
0	9857	25.000384454618	0
0	10811	27.500384454618	0
0	11795	30.000384454618	0
0	12749	32.500384454618	0
0	13733	35.000384454618	0
0	14687	37.500384454618	0
0	15671	40.000384454618	0
0	16625	42.500384454618	0
0	17609	45.000384454618	0
0	18563	47.500384454618	0
0	19547	50.000384454618	0
0	20501	52.500384454618	0
0	21485	55.000384454618	0
0	22439	57.500384454618	0
0	23423	60.000384454618	0
0	24377	62.500384454618	0
0	25361	65.000384454618	0
0	26315	67.500384454618	0
0	27299	70.000384454618	0
0	28253	72.500384454618	0
0	29237	75.000384454618	0
0	30191	77.500384454618	0
0	31175	80.000384454618	0
0	32129	82.500384454618	0
0	33113	85.000384454618	0
0	34067	87.500384454618	0
0	35051	90.000384454618	0
0	36005	92.500384454618	0
0	36989	95.000384454618	0
0	37943	97.500384454618	0
0	38927	100.000384454618	0
0	39881	102.500384454618	0
0	40865	105.000384454618	0
0	41819	107.500384454618	0
0	42803	110.000384454618	0
0	43757	112.500384454618	0
0	44741	115.000384454618	0
0	45695	117.500384454618	0
0	46679	120.000384454618	0
0	47633	122.500384454618	0
0	48617	125.000384454618	0
0	49571	127.500384454618	0
0	50555	130.000384454618	0
0	51509	132.500384454618	0
0	52493	135.000384454618	0
0	53447	137.500384454618	0
0	54431	140.000384454618	0
0	55385	142.500384454618	0
0	56369	145.000384454618	0
0	57323	147.500384454618	0
0	58307	150.000384454618	0
0	59261	152.500384454618	0
0	60245	155.000384454618	0
0	61199	157.500384454618	0
0	62183	160.000384454618	0
0	63137	162.500384454618	0
0	64121	165.000384454618	0
0	65075	167.500384454618	0
0	66059	170.000384454618	0
0	67013	172.500384454618	0
0	67997	175.000384454618	0
0	68951	177.500384454618	0
0	69935	180.000384454618	0
0	70889	182.500384454618	0
0	71873	185.000384454618	0
0	72827	187.500384454618	0
0	73811	190.000384454618	0
0	74765	192.500384454618	0
0	75749	195.000384454618	0
0	76703	197.500384454618	0
0	77687	200.000384454618	0
0	78641	202.500384454618	0
0	79625	205.000384454618	0
0	80579	207.500384454618	0
0	81563	210.000384454618	0
0	82517	212.500384454618	0
0	83501	215.000384454618	0
0	84455	217.500384454618	0
0	85439	220.000384454618	0
0	86393	222.500384454618	0
0	87377	225.000384454618	0
0	88331	227.500384454618	0
0	89315	230.000384454618	0
0	90269	232.500384454618	0
0	91253	235.000384454618	0
0	92207	237.500384454618	0
0	93191	240.000384454618	0
0	94145	242.500384454618	0
0	95129	245.000384454618	0
0	96083	247.500384454618	0
0	97067	250.000384454618	0
0	98021	252.500384454618	0
0	99005	255.000384454618	0
0	99959	257.500384454618	0
0	100943	260.000384454618	0
0	101897	262.500384454618	0
0	102881	265.000384454618	0
0	103835	267.500384454618	0
0	104819	270.000384454618	0
0	105773	272.500384454618	0
0	106757	275.000384454618	0
0	107711	277.500384454618	0
0	108695	280.000384454618	0
0	109649	282.500384454618	0
0	110633	285.000384454618	0
0	111587	287.500384454618	0
0	112571	290.000384454618	0
0	113525	292.500384454618	0
0	114509	295.000384454618	0
0	115463	297.500384454618	0
1	167	0.000384454618	0.000384454618
1	1121	2.500384454618	0.000384454618
1	2105	5.000384454618	0.000384454618
1	3059	7.500384454618	0.000384454618
1	4043	10.000384454618	0.000384454618
1	4997	12.500384454618	0.000384454618
1	5981	15.000384454618	0.000384454618
1	6935	17.500384454618	0.000384454618
1	7919	20.000384454618	0.000384454618
1	8873	22.500384454618	0.000384454618
1	9857	25.000384454618	0.000384454618
1	10811	27.500384454618	0.000384454618
1	11795	30.000384454618	0.000384454618
1	12749	32.500384454618	0.000384454618
1	13733	35.000384454618	0.000384454618
1	14687	37.500384454618	0.000384454618
1	15671	40.000384454618	0.000384454618
1	16625	42.500384454618	0.000384454618
1	17609	45.000384454618	0.000384454618
1	18563	47.500384454618	0.000384454618
1	19547	50.000384454618	0.000384454618
1	20501	52.500384454618	0.000384454618
1	21485	55.000384454618	0.000384454618
1	22439	57.500384454618	0.000384454618
1	23423	60.000384454618	0.000384454618
1	24377	62.500384454618	0.000384454618
1	25361	65.000384454618	0.000384454618
1	26315	67.500384454618	0.000384454618
1	27299	70.000384454618	0.000384454618
1	28253	72.500384454618	0.000384454618
1	29237	75.000384454618	0.000384454618
1	30191	77.500384454618	0.000384454618
1	31175	80.000384454618	0.000384454618
1	32129	82.500384454618	0.000384454618
1	33113	85.000384454618	0.000384454618
1	34067	87.500384454618	0.000384454618
1	35051	90.000384454618	0.000384454618
1	36005	92.500384454618	0.000384454618
1	36989	95.000384454618	0.000384454618
1	37943	97.500384454618	0.000384454618
1	38927	100.000384454618	0.000384454618
1	39881	102.500384454618	0.000384454618
1	40865	105.000384454618	0.000384454618
1	41819	107.500384454618	0.000384454618
1	42803	110.000384454618	0.000384454618
1	43757	112.500384454618	0.000384454618
1	44741	115.000384454618	0.000384454618
1	45695	117.500384454618	0.000384454618
1	46679	120.000384454618	0.000384454618
1	47633	122.500384454618	0.000384454618
1	48617	125.000384454618	0.000384454618
1	49571	127.500384454618	0.000384454618
1	50555	130.000384454618	0.000384454618
1	51509	132.500384454618	0.000384454618
1	52493	135.000384454618	0.000384454618
1	53447	137.500384454618	0.000384454618
1	54431	140.000384454618	0.000384454618
1	55385	142.500384454618	0.000384454618
1	56369	145.000384454618	0.000384454618
1	57323	147.500384454618	0.000384454618
1	58307	150.000384454618	0.000384454618
1	59261	152.500384454618	0.000384454618
1	60245	155.000384454618	0.000384454618
1	61199	157.500384454618	0.000384454618
1	62183	160.000384454618	0.000384454618
1	63137	162.500384454618	0.000384454618
1	64121	165.000384454618	0.000384454618
1	65075	167.500384454618	0.000384454618
1	66059	170.000384454618	0.000384454618
1	67013	172.500384454618	0.000384454618
1	67997	175.000384454618	0.000384454618
1	68951	177.500384454618	0.000384454618
1	69935	180.000384454618	0.000384454618
1	70889	182.500384454618	0.000384454618
1	71873	185.000384454618	0.000384454618
1	72827	187.500384454618	0.000384454618
1	73811	190.000384454618	0.000384454618
1	74765	192.500384454618	0.000384454618
1	75749	195.000384454618	0.000384454618
1	76703	197.500384454618	0.000384454618
1	77687	200.000384454618	0.000384454618
1	78641	202.500384454618	0.000384454618
1	79625	205.000384454618	0.000384454618
1	80579	207.500384454618	0.000384454618
1	81563	210.000384454618	0.000384454618
1	82517	212.500384454618	0.000384454618
1	83501	215.000384454618	0.000384454618
1	84455	217.500384454618	0.000384454618
1	85439	220.000384454618	0.000384454618
1	86393	222.500384454618	0.000384454618
1	87377	225.000384454618	0.000384454618
1	88331	227.500384454618	0.000384454618
1	89315	230.000384454618	0.000384454618
1	90269	232.500384454618	0.000384454618
1	91253	235.000384454618	0.000384454618
1	92207	237.500384454618	0.000384454618
1	93191	240.000384454618	0.000384454618
1	94145	242.500384454618	0.000384454618
1	95129	245.000384454618	0.000384454618
1	96083	247.500384454618	0.000384454618
1	97067	250.000384454618	0.000384454618
1	98021	252.500384454618	0.000384454618
1	99005	255.000384454618	0.000384454618
1	99959	257.500384454618	0.000384454618
1	100943	260.000384454618	0.000384454618
1	101897	262.500384454618	0.000384454618
1	102881	265.000384454618	0.000384454618
1	103835	267.500384454618	0.000384454618
1	104819	270.000384454618	0.000384454618
1	105773	272.500384454618	0.000384454618
1	106757	275.000384454618	0.000384454618
1	107711	277.500384454618	0.000384454618
1	108695	280.000384454618	0.000384454618
1	109649	282.500384454618	0.000384454618
1	110633	285.000384454618	0.000384454618
1	111587	287.500384454618	0.000384454618
1	112571	290.000384454618	0.000384454618
1	113525	292.500384454618	0.000384454618
1	114509	295.000384454618	0.000384454618
1	115463	297.500384454618	0.000384454618
3	20	0	0
3	199	0.2	0
3	271	0.4	0
3	343	0.6	0
3	415	0.8	0
3	487	1	0
3	559	1.2	0
3	631	1.4	0
3	703	1.6	0
3	775	1.8	0
3	847	2	0
3	919	2.2	0
3	991	2.4	0
3	1132	2.6	0
3	1204	2.8	0
3	1276	3	0
3	1348	3.2	0
3	1420	3.4	0
3	1492	3.6	0
3	1564	3.8	0
3	1636	4	0
3	1708	4.2	0
3	1780	4.4	0
3	1852	4.6	0
3	1924	4.8	0
3	1999	5	0
3	2137	5.2	0
3	2209	5.4	0
3	2281	5.6	0
3	2353	5.8	0
3	2425	6	0
3	2497	6.2	0
3	2569	6.4	0
3	2641	6.6	0
3	2713	6.8	0
3	2785	7	0
3	2857	7.2	0
3	2929	7.4	0
3	3070	7.6	0
3	3142	7.8	0
3	3214	8	0
3	3286	8.2	0
3	3358	8.4	0
3	3430	8.6	0
3	3502	8.8	0
3	3574	9	0
3	3646	9.2	0
3	3718	9.4	0
3	3790	9.6	0
3	3862	9.8	0
3	3937	10	0
3	4075	10.2	0
3	4147	10.4	0
3	4219	10.6	0
3	4291	10.8	0
3	4363	11	0
3	4435	11.2	0
3	4507	11.4	0
3	4579	11.6	0
3	4651	11.8	0
3	4723	12	0
3	4795	12.2	0
3	4867	12.4	0
3	5008	12.6	0
3	5080	12.8	0
3	5152	13	0
3	5224	13.2	0
3	5296	13.4	0
3	5368	13.6	0
3	5440	13.8	0
3	5512	14	0
3	5584	14.2	0
3	5656	14.4	0
3	5728	14.6	0
3	5800	14.8	0
3	5875	15	0
3	6013	15.2	0
3	6085	15.4	0
3	6157	15.6	0
3	6229	15.8	0
3	6301	16	0
3	6373	16.2	0
3	6445	16.4	0
3	6517	16.6	0
3	6589	16.8	0
3	6661	17	0
3	6733	17.2	0
3	6805	17.4	0
3	6946	17.6	0
3	7018	17.8	0
3	7090	18	0
3	7162	18.2	0
3	7234	18.4	0
3	7306	18.6	0
3	7378	18.8	0
3	7450	19	0
3	7522	19.2	0
3	7594	19.4	0
3	7666	19.6	0
3	7738	19.8	0
3	7813	20	0
3	7951	20.2	0
3	8023	20.4	0
3	8095	20.6	0
3	8167	20.8	0
3	8239	21	0
3	8311	21.2	0
3	8383	21.4	0
3	8455	21.6	0
3	8527	21.8	0
3	8599	22	0
3	8671	22.2	0
3	8743	22.4	0
3	8884	22.6	0
3	8956	22.8	0
3	9028	23	0
3	9100	23.2	0
3	9172	23.4	0
3	9244	23.6	0
3	9316	23.8	0
3	9388	24	0
3	9460	24.2	0
3	9532	24.4	0
3	9604	24.6	0
3	9676	24.8	0
3	9751	25	0
3	9889	25.2	0
3	9961	25.4	0
3	10033	25.6	0
3	10105	25.8	0
3	10177	26	0
3	10249	26.2	0
3	10321	26.4	0
3	10393	26.6	0
3	10465	26.8	0
3	10537	27	0
3	10609	27.2	0
3	10681	27.4	0
3	10822	27.6	0
3	10894	27.8	0
3	10966	28	0
3	11038	28.2	0
3	11110	28.4	0
3	11182	28.6	0
3	11254	28.8	0
3	11326	29	0
3	11398	29.2	0
3	11470	29.4	0
3	11542	29.6	0
3	11614	29.8	0
3	11689	30	0
3	11827	30.2	0
3	11899	30.4	0
3	11971	30.6	0
3	12043	30.8	0
3	12115	31	0
3	12187	31.2	0
3	12259	31.4	0
3	12331	31.6	0
3	12403	31.8	0
3	12475	32	0
3	12547	32.2	0
3	12619	32.4	0
3	12760	32.6	0
3	12832	32.8	0
3	12904	33	0
3	12976	33.2	0
3	13048	33.4	0
3	13120	33.6	0
3	13192	33.8	0
3	13264	34	0
3	13336	34.2	0
3	13408	34.4	0
3	13480	34.6	0
3	13552	34.8	0
3	13627	35	0
3	13765	35.2	0
3	13837	35.4	0
3	13909	35.6	0
3	13981	35.8	0
3	14053	36	0
3	14125	36.2	0
3	14197	36.4	0
3	14269	36.6	0
3	14341	36.8	0
3	14413	37	0
3	14485	37.2	0
3	14557	37.4	0
3	14698	37.6	0
3	14770	37.8	0
3	14842	38	0
3	14914	38.2	0
3	14986	38.4	0
3	15058	38.6	0
3	15130	38.8	0
3	15202	39	0
3	15274	39.2	0
3	15346	39.4	0
3	15418	39.6	0
3	15490	39.8	0
3	15565	40	0
3	15703	40.2	0
3	15775	40.4	0
3	15847	40.6	0
3	15919	40.8	0
3	15991	41	0
3	16063	41.2	0
3	16135	41.4	0
3	16207	41.6	0
3	16279	41.8	0
3	16351	42	0
3	16423	42.2	0
3	16495	42.4	0
3	16636	42.6	0
3	16708	42.8	0
3	16780	43	0
3	16852	43.2	0
3	16924	43.4	0
3	16996	43.6	0
3	17068	43.8	0
3	17140	44	0
3	17212	44.2	0
3	17284	44.4	0
3	17356	44.6	0
3	17428	44.8	0
3	17503	45	0
3	17641	45.2	0
3	17713	45.4	0
3	17785	45.6	0
3	17857	45.8	0
3	17929	46	0
3	18001	46.2	0
3	18073	46.4	0
3	18145	46.6	0
3	18217	46.8	0
3	18289	47	0
3	18361	47.2	0
3	18433	47.4	0
3	18574	47.6	0
3	18646	47.8	0
3	18718	48	0
3	18790	48.2	0
3	18862	48.4	0
3	18934	48.6	0
3	19006	48.8	0
3	19078	49	0
3	19150	49.2	0
3	19222	49.4	0
3	19294	49.6	0
3	19366	49.8	0
3	19441	50	0
3	19579	50.2	0
3	19651	50.4	0
3	19723	50.6	0
3	19795	50.8	0
3	19867	51	0
3	19939	51.2	0
3	20011	51.4	0
3	20083	51.6	0
3	20155	51.8	0
3	20227	52	0
3	20299	52.2	0
3	20371	52.4	0
3	20512	52.6	0
3	20584	52.8	0
3	20656	53	0
3	20728	53.2	0
3	20800	53.4	0
3	20872	53.6	0
3	20944	53.8	0
3	21016	54	0
3	21088	54.2	0
3	21160	54.4	0
3	21232	54.6	0
3	21304	54.8	0
3	21379	55	0
3	21517	55.2	0
3	21589	55.4	0
3	21661	55.6	0
3	21733	55.8	0
3	21805	56	0
3	21877	56.2	0
3	21949	56.4	0
3	22021	56.6	0
3	22093	56.8	0
3	22165	57	0
3	22237	57.2	0
3	22309	57.4	0
3	22450	57.6	0
3	22522	57.8	0
3	22594	58	0
3	22666	58.2	0
3	22738	58.4	0
3	22810	58.6	0
3	22882	58.8	0
3	22954	59	0
3	23026	59.2	0
3	23098	59.4	0
3	23170	59.6	0
3	23242	59.8	0
3	23317	60	0
3	23455	60.2	0
3	23527	60.4	0
3	23599	60.6	0
3	23671	60.8	0
3	23743	61	0
3	23815	61.2	0
3	23887	61.4	0
3	23959	61.6	0
3	24031	61.8	0
3	24103	62	0
3	24175	62.2	0
3	24247	62.4	0
3	24388	62.6	0
3	24460	62.8	0
3	24532	63	0
3	24604	63.2	0
3	24676	63.4	0
3	24748	63.6	0
3	24820	63.8	0
3	24892	64	0
3	24964	64.2	0
3	25036	64.4	0
3	25108	64.6	0
3	25180	64.8	0
3	25255	65	0
3	25393	65.2	0
3	25465	65.4	0
3	25537	65.6	0
3	25609	65.8	0
3	25681	66	0
3	25753	66.2	0
3	25825	66.4	0
3	25897	66.6	0
3	25969	66.8	0
3	26041	67	0
3	26113	67.2	0
3	26185	67.4	0
3	26326	67.6	0
3	26398	67.8	0
3	26470	68	0
3	26542	68.2	0
3	26614	68.4	0
3	26686	68.6	0
3	26758	68.8	0
3	26830	69	0
3	26902	69.2	0
3	26974	69.4	0
3	27046	69.6	0
3	27118	69.8	0
3	27193	70	0
3	27331	70.2	0
3	27403	70.4	0
3	27475	70.6	0
3	27547	70.8	0
3	27619	71	0
3	27691	71.2	0
3	27763	71.4	0
3	27835	71.6	0
3	27907	71.8	0
3	27979	72	0
3	28051	72.2	0
3	28123	72.4	0
3	28264	72.6	0
3	28336	72.8	0
3	28408	73	0
3	28480	73.2	0
3	28552	73.4	0
3	28624	73.6	0
3	28696	73.8	0
3	28768	74	0
3	28840	74.2	0
3	28912	74.4	0
3	28984	74.6	0
3	29056	74.8	0
3	29131	75	0
3	29269	75.2	0
3	29341	75.4	0
3	29413	75.6	0
3	29485	75.8	0
3	29557	76	0
3	29629	76.2	0
3	29701	76.4	0
3	29773	76.6	0
3	29845	76.8	0
3	29917	77	0
3	29989	77.2	0
3	30061	77.4	0
3	30202	77.6	0
3	30274	77.8	0
3	30346	78	0
3	30418	78.2	0
3	30490	78.4	0
3	30562	78.6	0
3	30634	78.8	0
3	30706	79	0
3	30778	79.2	0
3	30850	79.4	0
3	30922	79.6	0
3	30994	79.8	0
3	31069	80	0
3	31207	80.2	0
3	31279	80.4	0
3	31351	80.6	0
3	31423	80.8	0
3	31495	81	0
3	31567	81.2	0
3	31639	81.4	0
3	31711	81.6	0
3	31783	81.8	0
3	31855	82	0
3	31927	82.2	0
3	31999	82.4	0
3	32140	82.6	0
3	32212	82.8	0
3	32284	83	0
3	32356	83.2	0
3	32428	83.4	0
3	32500	83.6	0
3	32572	83.8	0
3	32644	84	0
3	32716	84.2	0
3	32788	84.4	0
3	32860	84.6	0
3	32932	84.8	0
3	33007	85	0
3	33145	85.2	0
3	33217	85.4	0