version 2
run traffic-jam-500-0-20150616-15:09:33-3030
attr configname traffic-jam-500
attr datetime 20150616-15:09:33
attr experiment traffic-jam-500
attr inifile omnetpp.ini
attr iterationvars ""
attr iterationvars2 $repetition=0
attr measurement ""
attr network intersection
attr processid 3030
attr repetition 0
attr replication #0
attr resultdir results
attr runnumber 0
attr seedset 0

vector 18  intersection.tl1.ppp[0].queue  queueLength:vector  ETV
attr interpolationmode  sample-hold
attr title  "queue length, vector"
vector 19  intersection.tl1.ppp[0].ppp  txState:vector  ETV
attr interpolationmode  sample-hold
attr title  "tx state, vector"
vector 44  intersection.tl2.ppp[0].queue  queueLength:vector  ETV
attr interpolationmode  sample-hold
attr title  "queue length, vector"
vector 45  intersection.tl2.ppp[0].ppp  txState:vector  ETV
attr interpolationmode  sample-hold
attr title  "tx state, vector"
vector 70  intersection.tl3.ppp[0].queue  queueLength:vector  ETV
attr interpolationmode  sample-hold
attr title  "queue length, vector"
vector 71  intersection.tl3.ppp[0].ppp  txState:vector  ETV
attr interpolationmode  sample-hold
attr title  "tx state, vector"
vector 86  intersection.r1.ppp[0].queue  queueLength:vector  ETV
attr interpolationmode  sample-hold
attr title  "queue length, vector"
vector 87  intersection.r1.ppp[0].ppp  txState:vector  ETV
attr interpolationmode  sample-hold
attr title  "tx state, vector"
vector 97  intersection.r1.ppp[1].queue  queueLength:vector  ETV
attr interpolationmode  sample-hold
attr title  "queue length, vector"
vector 98  intersection.r1.ppp[1].ppp  txState:vector  ETV
attr interpolationmode  sample-hold
attr title  "tx state, vector"
vector 108  intersection.r1.ppp[2].queue  queueLength:vector  ETV
attr interpolationmode  sample-hold
attr title  "queue length, vector"
vector 109  intersection.r1.ppp[2].ppp  txState:vector  ETV
attr interpolationmode  sample-hold
attr title  "tx state, vector"
vector 119  intersection.r1.ppp[3].queue  queueLength:vector  ETV
attr interpolationmode  sample-hold
attr title  "queue length, vector"
vector 120  intersection.r1.ppp[3].ppp  txState:vector  ETV
attr interpolationmode  sample-hold
attr title  "tx state, vector"
vector 155  intersection.cn.ppp[0].queue  queueLength:vector  ETV
attr interpolationmode  sample-hold
attr title  "queue length, vector"
vector 156  intersection.cn.ppp[0].ppp  txState:vector  ETV
attr interpolationmode  sample-hold
attr title  "tx state, vector"
vector 3  intersection.tl1.senderApp  sentPk:vector(packetBytes)  ETV
attr interpolationmode  none
attr source  sentPk
attr title  "packets sent, vector(packetBytes)"
vector 29  intersection.tl2.senderApp  sentPk:vector(packetBytes)  ETV
attr interpolationmode  none
attr source  sentPk
attr title  "packets sent, vector(packetBytes)"
vector 55  intersection.tl3.senderApp  sentPk:vector(packetBytes)  ETV
attr interpolationmode  none
attr source  sentPk
attr title  "packets sent, vector(packetBytes)"
vector 134  intersection.cn.sender1  sentPk:vector(packetBytes)  ETV
attr interpolationmode  none
attr source  sentPk
attr title  "packets sent, vector(packetBytes)"
vector 137  intersection.cn.sender2  sentPk:vector(packetBytes)  ETV
attr interpolationmode  none
attr source  sentPk
attr title  "packets sent, vector(packetBytes)"
vector 140  intersection.cn.sender3  sentPk:vector(packetBytes)  ETV
attr interpolationmode  none
attr source  sentPk
attr title  "packets sent, vector(packetBytes)"
vector 5  intersection.tl1.udp  sentPk:vector(packetBytes)  ETV
attr interpolationmode  none
attr source  sentPk
attr title  "packets sent, vector(packetBytes)"
vector 31  intersection.tl2.udp  sentPk:vector(packetBytes)  ETV
attr interpolationmode  none
attr source  sentPk
attr title  "packets sent, vector(packetBytes)"
vector 57  intersection.tl3.udp  sentPk:vector(packetBytes)  ETV
attr interpolationmode  none
attr source  sentPk
attr title  "packets sent, vector(packetBytes)"
vector 142  intersection.cn.udp  sentPk:vector(packetBytes)  ETV
attr interpolationmode  none
attr source  sentPk
attr title  "packets sent, vector(packetBytes)"
vector 15  intersection.tl1.ppp[0].queue  rcvdPk:vector(packetBytes)  ETV
attr interpolationmode  none
attr title  "received packets, vector(packetBytes)"
vector 17  intersection.tl1.ppp[0].queue  queueingTime:vector  ETV
attr interpolationmode  none
attr title  "queueing time, vector"
vector 41  intersection.tl2.ppp[0].queue  rcvdPk:vector(packetBytes)  ETV
attr interpolationmode  none
attr title  "received packets, vector(packetBytes)"
vector 43  intersection.tl2.ppp[0].queue  queueingTime:vector  ETV
attr interpolationmode  none
attr title  "queueing time, vector"
vector 67  intersection.tl3.ppp[0].queue  rcvdPk:vector(packetBytes)  ETV
attr interpolationmode  none
attr title  "received packets, vector(packetBytes)"
vector 69  intersection.tl3.ppp[0].queue  queueingTime:vector  ETV
attr interpolationmode  none
attr title  "queueing time, vector"
vector 152  intersection.cn.ppp[0].queue  rcvdPk:vector(packetBytes)  ETV
attr interpolationmode  none
attr title  "received packets, vector(packetBytes)"
vector 154  intersection.cn.ppp[0].queue  queueingTime:vector  ETV
attr interpolationmode  none
attr title  "queueing time, vector"
vector 24  intersection.tl1.ppp[0].ppp  rcvdPkFromHL:vector(packetBytes)  ETV
attr interpolationmode  none
attr source  packetReceivedFromUpper
attr title  "packets received from higher layer, vector(packetBytes)"
vector 20  intersection.tl1.ppp[0].ppp  txPk:vector(packetBytes)  ETV
attr interpolationmode  none
attr source  packetSentToLower
attr title  "packets transmitted, vector(packetBytes)"
vector 50  intersection.tl2.ppp[0].ppp  rcvdPkFromHL:vector(packetBytes)  ETV
attr interpolationmode  none
attr source  packetReceivedFromUpper
attr title  "packets received from higher layer, vector(packetBytes)"
vector 46  intersection.tl2.ppp[0].ppp  txPk:vector(packetBytes)  ETV
attr interpolationmode  none
attr source  packetSentToLower
attr title  "packets transmitted, vector(packetBytes)"
vector 76  intersection.tl3.ppp[0].ppp  rcvdPkFromHL:vector(packetBytes)  ETV
attr interpolationmode  none
attr source  packetReceivedFromUpper
attr title  "packets received from higher layer, vector(packetBytes)"
vector 72  intersection.tl3.ppp[0].ppp  txPk:vector(packetBytes)  ETV
attr interpolationmode  none
attr source  packetSentToLower
attr title  "packets transmitted, vector(packetBytes)"
vector 161  intersection.cn.ppp[0].ppp  rcvdPkFromHL:vector(packetBytes)  ETV
attr interpolationmode  none
attr source  packetReceivedFromUpper
attr title  "packets received from higher layer, vector(packetBytes)"
vector 157  intersection.cn.ppp[0].ppp  txPk:vector(packetBytes)  ETV
attr interpolationmode  none
attr source  packetSentToLower
attr title  "packets transmitted, vector(packetBytes)"
vector 89  intersection.r1.ppp[0].ppp  rxPkOk:vector(packetBytes)  ETV
attr interpolationmode  none
attr source  rxPkOk
attr title  "packets received OK, vector(packetBytes)"
vector 93  intersection.r1.ppp[0].ppp  passedUpPk:vector(packetBytes)  ETV
attr interpolationmode  none
attr source  packetSentToUpper
attr title  "packets passed to higher layer, vector(packetBytes)"
vector 116  intersection.r1.ppp[3].queue  rcvdPk:vector(packetBytes)  ETV
attr interpolationmode  none
attr title  "received packets, vector(packetBytes)"
vector 118  intersection.r1.ppp[3].queue  queueingTime:vector  ETV
attr interpolationmode  none
attr title  "queueing time, vector"
vector 125  intersection.r1.ppp[3].ppp  rcvdPkFromHL:vector(packetBytes)  ETV
attr interpolationmode  none
attr source  packetReceivedFromUpper
attr title  "packets received from higher layer, vector(packetBytes)"
vector 121  intersection.r1.ppp[3].ppp  txPk:vector(packetBytes)  ETV
attr interpolationmode  none
attr source  packetSentToLower
attr title  "packets transmitted, vector(packetBytes)"
vector 111  intersection.r1.ppp[2].ppp  rxPkOk:vector(packetBytes)  ETV
attr interpolationmode  none
attr source  rxPkOk
attr title  "packets received OK, vector(packetBytes)"
vector 115  intersection.r1.ppp[2].ppp  passedUpPk:vector(packetBytes)  ETV
attr interpolationmode  none
attr source  packetSentToUpper
attr title  "packets passed to higher layer, vector(packetBytes)"
vector 122  intersection.r1.ppp[3].ppp  rxPkOk:vector(packetBytes)  ETV
attr interpolationmode  none
attr source  rxPkOk
attr title  "packets received OK, vector(packetBytes)"
vector 126  intersection.r1.ppp[3].ppp  passedUpPk:vector(packetBytes)  ETV
attr interpolationmode  none
attr source  packetSentToUpper
attr title  "packets passed to higher layer, vector(packetBytes)"
vector 83  intersection.r1.ppp[0].queue  rcvdPk:vector(packetBytes)  ETV
attr interpolationmode  none
attr title  "received packets, vector(packetBytes)"
vector 85  intersection.r1.ppp[0].queue  queueingTime:vector  ETV
attr interpolationmode  none
attr title  "queueing time, vector"
vector 92  intersection.r1.ppp[0].ppp  rcvdPkFromHL:vector(packetBytes)  ETV
attr interpolationmode  none
attr source  packetReceivedFromUpper
attr title  "packets received from higher layer, vector(packetBytes)"
vector 88  intersection.r1.ppp[0].ppp  txPk:vector(packetBytes)  ETV
attr interpolationmode  none
attr source  packetSentToLower
attr title  "packets transmitted, vector(packetBytes)"
vector 94  intersection.r1.ppp[1].queue  rcvdPk:vector(packetBytes)  ETV
attr interpolationmode  none
attr title  "received packets, vector(packetBytes)"
vector 96  intersection.r1.ppp[1].queue  queueingTime:vector  ETV
attr interpolationmode  none
attr title  "queueing time, vector"
vector 103  intersection.r1.ppp[1].ppp  rcvdPkFromHL:vector(packetBytes)  ETV
attr interpolationmode  none
attr source  packetReceivedFromUpper
attr title  "packets received from higher layer, vector(packetBytes)"
vector 99  intersection.r1.ppp[1].ppp  txPk:vector(packetBytes)  ETV
attr interpolationmode  none
attr source  packetSentToLower
attr title  "packets transmitted, vector(packetBytes)"
vector 105  intersection.r1.ppp[2].queue  rcvdPk:vector(packetBytes)  ETV
attr interpolationmode  none
attr title  "received packets, vector(packetBytes)"
vector 107  intersection.r1.ppp[2].queue  queueingTime:vector  ETV
attr interpolationmode  none
attr title  "queueing time, vector"
vector 114  intersection.r1.ppp[2].ppp  rcvdPkFromHL:vector(packetBytes)  ETV
attr interpolationmode  none
attr source  packetReceivedFromUpper
attr title  "packets received from higher layer, vector(packetBytes)"
vector 110  intersection.r1.ppp[2].ppp  txPk:vector(packetBytes)  ETV
attr interpolationmode  none
attr source  packetSentToLower
attr title  "packets transmitted, vector(packetBytes)"
vector 100  intersection.r1.ppp[1].ppp  rxPkOk:vector(packetBytes)  ETV
attr interpolationmode  none
attr source  rxPkOk
attr title  "packets received OK, vector(packetBytes)"
vector 104  intersection.r1.ppp[1].ppp  passedUpPk:vector(packetBytes)  ETV
attr interpolationmode  none
attr source  packetSentToUpper
attr title  "packets passed to higher layer, vector(packetBytes)"
vector 73  intersection.tl3.ppp[0].ppp  rxPkOk:vector(packetBytes)  ETV
attr interpolationmode  none
attr source  rxPkOk
attr title  "packets received OK, vector(packetBytes)"
vector 77  intersection.tl3.ppp[0].ppp  passedUpPk:vector(packetBytes)  ETV
attr interpolationmode  none
attr source  packetSentToUpper
attr title  "packets passed to higher layer, vector(packetBytes)"
vector 58  intersection.tl3.udp  rcvdPk:vector(packetBytes)  ETV
attr interpolationmode  none
attr source  rcvdPk
attr title  "packets received, vector(packetBytes)"
vector 59  intersection.tl3.udp  passedUpPk:vector(count)  ETV
attr interpolationmode  none
attr title  "packets passed up, vector(count)"
vector 52  intersection.tl3.sinkApp  rcvdPk:vector(packetBytes)  ETV
attr interpolationmode  none
attr source  rcvdPk
attr title  "packets received, vector(packetBytes)"
vector 53  intersection.tl3.sinkApp  endToEndDelay:vector  ETV
attr interpolationmode  none
attr source  messageAge(rcvdPk)
attr title  "end-to-end delay, vector"
attr unit  s
vector 21  intersection.tl1.ppp[0].ppp  rxPkOk:vector(packetBytes)  ETV
attr interpolationmode  none
attr source  rxPkOk
attr title  "packets received OK, vector(packetBytes)"
vector 25  intersection.tl1.ppp[0].ppp  passedUpPk:vector(packetBytes)  ETV
attr interpolationmode  none
attr source  packetSentToUpper
attr title  "packets passed to higher layer, vector(packetBytes)"
vector 6  intersection.tl1.udp  rcvdPk:vector(packetBytes)  ETV
attr interpolationmode  none
attr source  rcvdPk
attr title  "packets received, vector(packetBytes)"
vector 7  intersection.tl1.udp  passedUpPk:vector(count)  ETV
attr interpolationmode  none
attr title  "packets passed up, vector(count)"
vector 0  intersection.tl1.sinkApp  rcvdPk:vector(packetBytes)  ETV
attr interpolationmode  none
attr source  rcvdPk
attr title  "packets received, vector(packetBytes)"
vector 1  intersection.tl1.sinkApp  endToEndDelay:vector  ETV
attr interpolationmode  none
attr source  messageAge(rcvdPk)
attr title  "end-to-end delay, vector"
attr unit  s
vector 158  intersection.cn.ppp[0].ppp  rxPkOk:vector(packetBytes)  ETV
attr interpolationmode  none
attr source  rxPkOk
attr title  "packets received OK, vector(packetBytes)"
vector 162  intersection.cn.ppp[0].ppp  passedUpPk:vector(packetBytes)  ETV
attr interpolationmode  none
attr source  packetSentToUpper
attr title  "packets passed to higher layer, vector(packetBytes)"
vector 143  intersection.cn.udp  rcvdPk:vector(packetBytes)  ETV
attr interpolationmode  none
attr source  rcvdPk
attr title  "packets received, vector(packetBytes)"
vector 144  intersection.cn.udp  passedUpPk:vector(count)  ETV
attr interpolationmode  none
attr title  "packets passed up, vector(count)"
vector 127  intersection.cn.controlNodeSink1  rcvdPk:vector(packetBytes)  ETV
attr interpolationmode  none
attr source  rcvdPk
attr title  "packets received, vector(packetBytes)"
vector 128  intersection.cn.controlNodeSink1  endToEndDelay:vector  ETV
attr interpolationmode  none
attr source  messageAge(rcvdPk)
attr title  "end-to-end delay, vector"
attr unit  s
vector 47  intersection.tl2.ppp[0].ppp  rxPkOk:vector(packetBytes)  ETV
attr interpolationmode  none
attr source  rxPkOk
attr title  "packets received OK, vector(packetBytes)"
vector 51  intersection.tl2.ppp[0].ppp  passedUpPk:vector(packetBytes)  ETV
attr interpolationmode  none
attr source  packetSentToUpper
attr title  "packets passed to higher layer, vector(packetBytes)"
vector 32  intersection.tl2.udp  rcvdPk:vector(packetBytes)  ETV
attr interpolationmode  none
attr source  rcvdPk
attr title  "packets received, vector(packetBytes)"
vector 33  intersection.tl2.udp  passedUpPk:vector(count)  ETV
attr interpolationmode  none
attr title  "packets passed up, vector(count)"
vector 26  intersection.tl2.sinkApp  rcvdPk:vector(packetBytes)  ETV
attr interpolationmode  none
attr source  rcvdPk
attr title  "packets received, vector(packetBytes)"
vector 27  intersection.tl2.sinkApp  endToEndDelay:vector  ETV
attr interpolationmode  none
attr source  messageAge(rcvdPk)
attr title  "end-to-end delay, vector"
attr unit  s
vector 131  intersection.cn.controlNodeSink3  rcvdPk:vector(packetBytes)  ETV
attr interpolationmode  none
attr source  rcvdPk
attr title  "packets received, vector(packetBytes)"
vector 132  intersection.cn.controlNodeSink3  endToEndDelay:vector  ETV
attr interpolationmode  none
attr source  messageAge(rcvdPk)
attr title  "end-to-end delay, vector"
attr unit  s
vector 129  intersection.cn.controlNodeSink2  rcvdPk:vector(packetBytes)  ETV
attr interpolationmode  none
attr source  rcvdPk
attr title  "packets received, vector(packetBytes)"
vector 130  intersection.cn.controlNodeSink2  endToEndDelay:vector  ETV
attr interpolationmode  none
attr source  messageAge(rcvdPk)
attr title  "end-to-end delay, vector"
attr unit  s
0	167	0.000384454618	0
0	1121	2.500384454618	0
0	2105	5.000384454618	0
0	3059	7.500384454618	0
0	4043	10.000384454618	0
0	4997	12.500384454618	0
0	5981	15.000384454618	0
0	6935	17.500384454618	0
0	7919	20.000384454618	0
0	8873	22.500384454618	0
0	9857	25.000384454618	0
0	10811	27.500384454618	0
0	11795	30.000384454618	0
1	167	0.000384454618	0.000384454618
1	1121	2.500384454618	0.000384454618
1	2105	5.000384454618	0.000384454618
1	3059	7.500384454618	0.000384454618
1	4043	10.000384454618	0.000384454618
1	4997	12.500384454618	0.000384454618
1	5981	15.000384454618	0.000384454618
1	6935	17.500384454618	0.000384454618
1	7919	20.000384454618	0.000384454618
1	8873	22.500384454618	0.000384454618
1	9857	25.000384454618	0.000384454618
1	10811	27.500384454618	0.000384454618
1	11795	30.000384454618	0.000384454618
3	20	0	0
3	199	0.2	0
3	271	0.4	0
3	343	0.6	0
3	415	0.8	0
3	487	1	0
3	559	1.2	0
3	631	1.4	0
3	703	1.6	0
3	775	1.8	0
3	847	2	0
3	919	2.2	0
3	991	2.4	0
3	1132	2.6	0
3	1204	2.8	0
3	1276	3	0
3	1348	3.2	0
3	1420	3.4	0
3	1492	3.6	0
3	1564	3.8	0
3	1636	4	0
3	1708	4.2	0
3	1780	4.4	0
3	1852	4.6	0
3	1924	4.8	0
3	1999	5	0
3	2137	5.2	0
3	2209	5.4	0
3	2281	5.6	0
3	2353	5.8	0
3	2425	6	0
3	2497	6.2	0
3	2569	6.4	0
3	2641	6.6	0
3	2713	6.8	0
3	2785	7	0
3	2857	7.2	0
3	2929	7.4	0
3	3070	7.6	0
3	3142	7.8	0
3	3214	8	0
3	3286	8.2	0
3	3358	8.4	0
3	3430	8.6	0
3	3502	8.8	0
3	3574	9	0
3	3646	9.2	0
3	3718	9.4	0
3	3790	9.6	0
3	3862	9.8	0
3	3937	10	0
3	4075	10.2	0
3	4147	10.4	0
3	4219	10.6	0
3	4291	10.8	0
3	4363	11	0
3	4435	11.2	0
3	4507	11.4	0
3	4579	11.6	0
3	4651	11.8	0
3	4723	12	0
3	4795	12.2	0
3	4867	12.4	0
3	5008	12.6	0
3	5080	12.8	0
3	5152	13	0
3	5224	13.2	0
3	5296	13.4	0
3	5368	13.6	0
3	5440	13.8	0
3	5512	14	0
3	5584	14.2	0
3	5656	14.4	0
3	5728	14.6	0
3	5800	14.8	0
3	5875	15	0
3	6013	15.2	0
3	6085	15.4	0
3	6157	15.6	0
3	6229	15.8	0
3	6301	16	0
3	6373	16.2	0
3	6445	16.4	0
3	6517	16.6	0
3	6589	16.8	0
3	6661	17	0
3	6733	17.2	0
3	6805	17.4	0
3	6946	17.6	0
3	7018	17.8	0
3	7090	18	0
3	7162	18.2	0
3	7234	18.4	0
3	7306	18.6	0
3	7378	18.8	0
3	7450	19	0
3	7522	19.2	0
3	7594	19.4	0
3	7666	19.6	0
3	7738	19.8	0
3	7813	20	0
3	7951	20.2	0
3	8023	20.4	0
3	8095	20.6	0
3	8167	20.8	0
3	8239	21	0
3	8311	21.2	0
3	8383	21.4	0
3	8455	21.6	0
3	8527	21.8	0
3	8599	22	0
3	8671	22.2	0
3	8743	22.4	0
3	8884	22.6	0
3	8956	22.8	0
3	9028	23	0
3	9100	23.2	0
3	9172	23.4	0
3	9244	23.6	0
3	9316	23.8	0
3	9388	24	0
3	9460	24.2	0
3	9532	24.4	0
3	9604	24.6	0
3	9676	24.8	0
3	9751	25	0
3	9889	25.2	0
3	9961	25.4	0
3	10033	25.6	0
3	10105	25.8	0
3	10177	26	0
3	10249	26.2	0
3	10321	26.4	0
3	10393	26.6	0
3	10465	26.8	0
3	10537	27	0
3	10609	27.2	0
3	10681	27.4	0
3	10822	27.6	0
3	10894	27.8	0
3	10966	28	0
3	11038	28.2	0
3	11110	28.4	0
3	11182	28.6	0
3	11254	28.8	0
3	11326	29	0
3	11398	29.2	0
3	11470	29.4	0
3	11542	29.6	0
3	11614	29.8	0
3	11689	30	0
3	11827	30.2	0
3	11899	30.4	0
3	11971	30.6	0
5	65	0	8
5	205	0.2	8
5	277	0.4	8
5	349	0.6	8
5	421	0.8	8
5	493	1	8
5	565	1.2	8
5	637	1.4	8
5	709	1.6	8
5	781	1.8	8
5	853	2	8
5	925	2.2	8
5	997	2.4	8
5	1138	2.6	8
5	1210	2.8	8
5	1282	3	8
5	1354	3.2	8
5	1426	3.4	8
5	1498	3.6	8
5	1570	3.8	8
5	1642	4	8
5	1714	4.2	8
5	1786	4.4	8
5	1858	4.6	8
5	1930	4.8	8
5	2011	5	8
5	2143	5.2	8
5	2215	5.4	8
5	2287	5.6	8
5	2359	5.8	8
5	2431	6	8
5	2503	6.2	8
5	2575	6.4	8
5	2647	6.6	8
5	2719	6.8	8
5	2791	7	8
5	2863	7.2	8
5	2935	7.4	8
5	3076	7.6	8
5	3148	7.8	8
5	3220	8	8
5	3292	8.2	8
5	3364	8.4	8
5	3436	8.6	8
5	3508	8.8	8
5	3580	9	8
5	3652	9.2	8
5	3724	9.4	8
5	3796	9.6	8
5	3868	9.8	8
5	3949	10	8
5	4081	10.2	8
5	4153	10.4	8
5	4225	10.6	8
5	4297	10.8	8
5	4369	11	8
5	4441	11.2	8
5	4513	11.4	8
5	4585	11.6	8
5	4657	11.8	8
5	4729	12	8
5	4801	12.2	8
5	4873	12.4	8
5	5014	12.6	8
5	5086	12.8	8
5	5158	13	8
5	5230	13.2	8
5	5302	13.4	8
5	5374	13.6	8
5	5446	13.8	8
5	5518	14	8
5	5590	14.2	8
5	5662	14.4	8
5	5734	14.6	8
5	5806	14.8	8
5	5887	15	8
5	6019	15.2	8
5	6091	15.4	8
5	6163	15.6	8
5	6235	15.8	8
5	6307	16	8
5	6379	16.2	8
5	6451	16.4	8
5	6523	16.6	8
5	6595	16.8	8
5	6667	17	8
5	6739	17.2	8
5	6811	17.4	8
5	6952	17.6	8
5	7024	17.8	8
5	7096	18	8
5	7168	18.2	8
5	7240	18.4	8
5	7312	18.6	8
5	7384	18.8	8
5	7456	19	8
5	7528	19.2	8
5	7600	19.4	8
5	7672	19.6	8
5	7744	19.8	8
5	7825	20	8
5	7957	20.2	8
5	8029	20.4	8
5	8101	20.6	8
5	8173	20.8	8
5	8245	21	8
5	8317	21.2	8
5	8389	21.4	8
5	8461	21.6	8
5	8533	21.8	8
5	8605	22	8
5	8677	22.2	8
5	8749	22.4	8
5	8890	22.6	8
5	8962	22.8	8
5	9034	23	8
5	9106	23.2	8
5	9178	23.4	8
5	9250	23.6	8
5	9322	23.8	8
5	9394	24	8
5	9466	24.2	8
5	9538	24.4	8
5	9610	24.6	8
5	9682	24.8	8
5	9763	25	8
5	9895	25.2	8
5	9967	25.4	8
5	10039	25.6	8
5	10111	25.8	8
5	10183	26	8
5	10255	26.2	8
5	10327	26.4	8
5	10399	26.6	8
5	10471	26.8	8
5	10543	27	8
5	10615	27.2	8
5	10687	27.4	8
5	10828	27.6	8
5	10900	27.8	8
5	10972	28	8
5	11044	28.2	8
5	11116	28.4	8
5	11188	28.6	8
5	11260	28.8	8
5	11332	29	8
5	11404	29.2	8
5	11476	29.4	8
5	11548	29.6	8
5	11620	29.8	8
5	11701	30	8
5	11833	30.2	8
5	11905	30.4	8
5	11977	30.6	8
6	165	0.000384454618	8
6	1119	2.500384454618	8
6	2103	5.000384454618	8
6	3057	7.500384454618	8
6	4041	10.000384454618	8
6	4995	12.500384454618	8
6	5979	15.000384454618	8
6	6933	17.500384454618	8
6	7917	20.000384454618	8
6	8871	22.500384454618	8
6	9855	25.000384454618	8
6	10809	27.500384454618	8
6	11793	30.000384454618	8
7	165	0.000384454618	1
7	1119	2.500384454618	2
7	2103	5.000384454618	3
7	3057	7.500384454618	4
7	4041	10.000384454618	5
7	4995	12.500384454618	6
7	5979	15.000384454618	7
7	6933	17.500384454618	8
7	7917	20.000384454618	9
7	8871	22.500384454618	10
7	9855	25.000384454618	11
7	10809	27.500384454618	12
7	11793	30.000384454618	13
15	94	0	28
15	217	0.2	28
15	289	0.4	28
15	361	0.6	28
15	433	0.8	28
15	505	1	28
15	577	1.2	28
15	649	1.4	28
15	721	1.6	28
15	793	1.8	28
15	865	2	28
15	937	2.2	28
15	1009	2.4	28
15	1150	2.6	28
15	1222	2.8	28
15	1294	3	28
15	1366	3.2	28
15	1438	3.4	28
15	1510	3.6	28
15	1582	3.8	28
15	1654	4	28
15	1726	4.2	28
15	1798	4.4	28
15	1870	4.6	28
15	1942	4.8	28
15	2035	5	28
15	2155	5.2	28
15	2227	5.4	28
15	2299	5.6	28
15	2371	5.8	28
15	2443	6	28
15	2515	6.2	28
15	2587	6.4	28
15	2659	6.6	28
15	2731	6.8	28
15	2803	7	28
15	2875	7.2	28
15	2947	7.4	28
15	3088	7.6	28
15	3160	7.8	28
15	3232	8	28
15	3304	8.2	28
15	3376	8.4	28
15	3448	8.6	28
15	3520	8.8	28
15	3592	9	28
15	3664	9.2	28
15	3736	9.4	28
15	3808	9.6	28
15	3880	9.8	28
15	3973	10	28
15	4093	10.2	28
15	4165	10.4	28
15	4237	10.6	28
15	4309	10.8	28
15	4381	11	28
15	4453	11.2	28
15	4525	11.4	28
15	4597	11.6	28
15	4669	11.8	28
15	4741	12	28
15	4813	12.2	28
15	4885	12.4	28
15	5026	12.6	28
15	5098	12.8	28
15	5170	13	28
15	5242	13.2	28
15	5314	13.4	28
15	5386	13.6	28
15	5458	13.8	28
15	5530	14	28
15	5602	14.2	28
15	5674	14.4	28
15	5746	14.6	28
15	5818	14.8	28
15	5911	15	28
15	6031	15.2	28
15	6103	15.4	28
15	6175	15.6	28
15	6247	15.8	28
15	6319	16	28
15	6391	16.2	28
15	6463	16.4	28
15	6535	16.6	28
15	6607	16.8	28
15	6679	17	28
15	6751	17.2	28
15	6823	17.4	28
15	6964	17.6	28
15	7036	17.8	28
15	7108	18	28
15	7180	18.2	28
15	7252	18.4	28
15	7324	18.6	28
15	7396	18.8	28
15	7468	19	28
15	7540	19.2	28
15	7612	19.4	28
15	7684	19.6	28
15	7756	19.8	28
15	7849	20	28
15	7969	20.2	28
15	8041	20.4	28
15	8113	20.6	28
15	8185	20.8	28
15	8257	21	28
15	8329	21.2	28
15	8401	21.4	28
15	8473	21.6	28
15	8545	21.8	28
15	8617	22	28
15	8689	22.2	28
15	8761	22.4	28
15	8902	22.6	28
15	8974	22.8	28
15	9046	23	28
15	9118	23.2	28
15	9190	23.4	28
15	9262	23.6	28
15	9334	23.8	28
15	9406	24	28
15	9478	24.2	28
15	9550	24.4	28
15	9622	24.6	28
15	9694	24.8	28
15	9787	25	28
15	9907	25.2	28
15	9979	25.4	28
15	10051	25.6	28
15	10123	25.8	28
15	10195	26	28
15	10267	26.2	28
15	10339	26.4	28
15	10411	26.6	28
15	10483	26.8	28
15	10555	27	28
15	10627	27.2	28
15	10699	27.4	28
15	10840	27.6	28
15	10912	27.8	28
15	10984	28	28
15	11056	28.2	28
15	11128	28.4	28
15	11200	28.6	28
15	11272	28.8	28
15	11344	29	28
15	11416	29.2	28
15	11488	29.4	28
15	11560	29.6	28
15	11632	29.8	28
15	11725	30	28
15	11845	30.2	28
15	11917	30.4	28
15	11989	30.6	28
17	94	0	0
17	217	0.2	0
17	289	0.4	0
17	361	0.6	0
17	433	0.8	0
17	505	1	0
17	577	1.2	0
17	649	1.4	0
17	721	1.6	0
17	793	1.8	0
17	865	2	0
17	937	2.2	0
17	1009	2.4	0
17	1150	2.6	0
17	1222	2.8	0
17	1294	3	0
17	1366	3.2	0
17	1438	3.4	0
17	1510	3.6	0
17	1582	3.8	0
17	1654	4	0
17	1726	4.2	0
17	1798	4.4	0
17	1870	4.6	0
17	1942	4.8	0
17	2035	5	0
17	2155	5.2	0
17	2227	5.4	0
17	2299	5.6	0
17	2371	5.8	0
17	2443	6	0
17	2515	6.2	0
17	2587	6.4	0
17	2659	6.6	0
17	2731	6.8	0
17	2803	7	0
17	2875	7.2	0
17	2947	7.4	0
17	3088	7.6	0
17	3160	7.8	0
17	3232	8	0
17	3304	8.2	0
17	3376	8.4	0
17	3448	8.6	0
17	3520	8.8	0
17	3592	9	0
17	3664	9.2	0
17	3736	9.4	0
17	3808	9.6	0
17	3880	9.8	0
17	3973	10	0
17	4093	10.2	0
17	4165	10.4	0
17	4237	10.6	0
17	4309	10.8	0
17	4381	11	0
17	4453	11.2	0
17	4525	11.4	0
17	4597	11.6	0
17	4669	11.8	0
17	4741	12	0
17	4813	12.2	0
17	4885	12.4	0
17	5026	12.6	0
17	5098	12.8	0
17	5170	13	0
17	5242	13.2	0
17	5314	13.4	0
17	5386	13.6	0
17	5458	13.8	0
17	5530	14	0
17	5602	14.2	0
17	5674	14.4	0
17	5746	14.6	0
17	5818	14.8	0
17	5911	15	0
17	6031	15.2	0
17	6103	15.4	0
17	6175	15.6	0
17	6247	15.8	0
17	6319	16	0
17	6391	16.2	0
17	6463	16.4	0
17	6535	16.6	0
17	6607	16.8	0
17	6679	17	0
17	6751	17.2	0
17	6823	17.4	0
17	6964	17.6	0
17	7036	17.8	0
17	7108	18	0
17	7180	18.2	0
17	7252	18.4	0
17	7324	18.6	0
17	7396	18.8	0
17	7468	19	0
17	7540	19.2	0
17	7612	19.4	0
17	7684	19.6	0
17	7756	19.8	0
17	7849	20	0
17	7969	20.2	0
17	8041	20.4	0
17	8113	20.6	0
17	8185	20.8	0
17	8257	21	0
17	8329	21.2	0
17	8401	21.4	0
17	8473	21.6	0
17	8545	21.8	0
17	8617	22	0
17	8689	22.2	0
17	8761	22.4	0
17	8902	22.6	0
17	8974	22.8	0
17	9046	23	0
17	9118	23.2	0
17	9190	23.4	0
17	9262	23.6	0
17	9334	23.8	0
17	9406	24	0
17	9478	24.2	0
17	9550	24.4	0
17	9622	24.6	0
17	9694	24.8	0
17	9787	25	0
17	9907	25.2	0
17	9979	25.4	0
17	10051	25.6	0
17	10123	25.8	0
17	10195	26	0
17	10267	26.2	0
17	10339	26.4	0
17	10411	26.6	0
17	10483	26.8	0
17	10555	27	0
17	10627	27.2	0
17	10699	27.4	0
17	10840	27.6	0
17	10912	27.8	0
17	10984	28	0
17	11056	28.2	0
17	11128	28.4	0
17	11200	28.6	0
17	11272	28.8	0
17	11344	29	0
17	11416	29.2	0
17	11488	29.4	0
17	11560	29.6	0
17	11632	29.8	0
17	11725	30	0
17	11845	30.2	0
17	11917	30.4	0
17	11989	30.6	0
18	0	0	0
19	0	0	0
19	100	0	1
19	104	0.000028	0
19	220	0.2	1
19	223	0.200028	0
19	292	0.4	1
19	295	0.400028	0
19	364	0.6	1
19	367	0.600028	0
19	436	0.8	1
19	439	0.800028	0
19	508	1	1
19	511	1.000028	0
19	580	1.2	1
19	583	1.200028	0
19	652	1.4	1
19	655	1.400028	0
19	724	1.6	1
19	727	1.600028	0
19	796	1.8	1
19	799	1.800028	0
19	868	2	1
19	871	2.000028	0
19	940	2.2	1
19	943	2.200028	0
19	1012	2.4	1
19	1015	2.400028	0
19	1153	2.6	1
19	1156	2.600028	0
19	1225	2.8	1
19	1228	2.800028	0
19	1297	3	1
19	1300	3.000028	0
19	1369	3.2	1
19	1372	3.200028	0
19	1441	3.4	1
19	1444	3.400028	0
19	1513	3.6	1
19	1516	3.600028	0
19	1585	3.8	1
19	1588	3.800028	0
19	1657	4	1
19	1660	4.000028	0
19	1729	4.2	1
19	1732	4.200028	0
19	1801	4.4	1
19	1804	4.400028	0
19	1873	4.6	1
19	1876	4.600028	0
19	1945	4.8	1
19	1948	4.800028	0
19	2039	5	1
19	2043	5.000028	0
19	2158	5.2	1
19	2161	5.200028	0
19	2230	5.4	1
19	2233	5.400028	0
19	2302	5.6	1
19	2305	5.600028	0
19	2374	5.8	1
19	2377	5.800028	0
19	2446	6	1
19	2449	6.000028	0
19	2518	6.2	1
19	2521	6.200028	0
19	2590	6.4	1
19	2593	6.400028	0
19	2662	6.6	1
19	2665	6.600028	0
19	2734	6.8	1
19	2737	6.800028	0
19	2806	7	1
19	2809	7.000028	0
19	2878	7.2	1
19	2881	7.200028	0
19	2950	7.4	1
19	2953	7.400028	0
19	3091	7.6	1
19	3094	7.600028	0
19	3163	7.8	1
19	3166	7.800028	0
19	3235	8	1
19	3238	8.000028	0
19	3307	8.2	1
19	3310	8.200028	0
19	3379	8.4	1
19	3382	8.400028	0
19	3451	8.6	1
19	3454	8.600028	0
19	3523	8.8	1
19	3526	8.800028	0
19	3595	9	1
19	3598	9.000028	0
19	3667	9.2	1
19	3670	9.200028	0
19	3739	9.4	1
19	3742	9.400028	0
19	3811	9.6	1
19	3814	9.600028	0
19	3883	9.8	1
19	3886	9.800028	0
19	3977	10	1
19	3981	10.000028	0
19	4096	10.2	1
19	4099	10.200028	0
19	4168	10.4	1
19	4171	10.400028	0
19	4240	10.6	1
19	4243	10.600028	0
19	4312	10.8	1
19	4315	10.800028	0
19	4384	11	1
19	4387	11.000028	0
19	4456	11.2	1
19	4459	11.200028	0
19	4528	11.4	1
19	4531	11.400028	0
19	4600	11.6	1
19	4603	11.600028	0
19	4672	11.8	1
19	4675	11.800028	0
19	4744	12	1
19	4747	12.000028	0
19	4816	12.2	1
19	4819	12.200028	0
19	4888	12.4	1
19	4891	12.400028	0
19	5029	12.6	1
19	5032	12.600028	0
19	5101	12.8	1
19	5104	12.800028	0
19	5173	13	1
19	5176	13.000028	0
19	5245	13.2	1
19	5248	13.200028	0
19	5317	13.4	1
19	5320	13.400028	0
19	5389	13.6	1
19	5392	13.600028	0
19	5461	13.8	1
19	5464	13.800028	0
19	5533	14	1
19	5536	14.000028	0
19	5605	14.2	1
19	5608	14.200028	0
19	5677	14.4	1
19	5680	14.400028	0
19	5749	14.6	1
19	5752	14.600028	0
19	5821	14.8	1
19	5824	14.800028	0
19	5915	15	1
19	5919	15.000028	0
19	6034	15.2	1
19	6037	15.200028	0
19	6106	15.4	1
19	6109	15.400028	0
19	6178	15.6	1
19	6181	15.600028	0
19	6250	15.8	1
19	6253	15.800028	0
19	6322	16	1
19	6325	16.000028	0
19	6394	16.2	1
19	6397	16.200028	0
19	6466	16.4	1
19	6469	16.400028	0
19	6538	16.6	1
19	6541	16.600028	0
19	6610	16.8	1
19	6613	16.800028	0
19	6682	17	1
19	6685	17.000028	0
19	6754	17.2	1
19	6757	17.200028	0
19	6826	17.4	1
19	6829	17.400028	0
19	6967	17.6	1
19	6970	17.600028	0
19	7039	17.8	1
19	7042	17.800028	0
19	7111	18	1
19	7114	18.000028	0
19	7183	18.2	1
19	7186	18.200028	0
19	7255	18.4	1
19	7258	18.400028	0
19	7327	18.6	1
19	7330	18.600028	0
19	7399	18.8	1
19	7402	18.800028	0
19	7471	19	1
19	7474	19.000028	0
19	7543	19.2	1
19	7546	19.200028	0
19	7615	19.4	1
19	7618	19.400028	0
19	7687	19.6	1
19	7690	19.600028	0
19	7759	19.8	1
19	7762	19.800028	0
19	7853	20	1
19	7857	20.000028	0
19	7972	20.2	1
19	7975	20.200028	0
19	8044	20.4	1
19	8047	20.400028	0
19	8116	20.6	1
19	8119	20.600028	0
19	8188	20.8	1
19	8191	20.800028	0
19	8260	21	1
19	8263	21.000028	0
19	8332	21.2	1
19	8335	21.200028	0
19	8404	21.4	1
19	8407	21.400028	0
19	8476	21.6	1
19	8479	21.600028	0
19	8548	21.8	1
19	8551	21.800028	0
19	8620	22	1
19	8623	22.000028	0
19	8692	22.2	1
19	8695	22.200028	0
19	8764	22.4	1
19	8767	22.400028	0
19	8905	22.6	1
19	8908	22.600028	0
19	8977	22.8	1